 VARIABLES = "zeta_l", "B ", " xi_1 ", " xi_2 " 
 ZONE I=       26752 F=POINT
   0.0000000000000000E+00   0.2874664455395620E+01   0.1636514119038593E+00   0.1000108004917016E+00
   0.9817477042468109E-02   0.2874261188867325E+01   0.1640680059621663E+00   0.1007027312100671E+00
   0.1963495408493622E-01   0.2873200289947430E+01   0.1651589480406066E+00   0.1025007324578464E+00
   0.2945243112740432E-01   0.2871428747753046E+01   0.1669647689644861E+00   0.1054347984862497E+00
   0.3926990816987243E-01   0.2868867288681446E+01   0.1695417840728685E+00   0.1095382610095718E+00
   0.4908738521234055E-01   0.2865427194425431E+01   0.1729423636126491E+00   0.1148187932760872E+00
   0.5890486225480865E-01   0.2861032156304272E+01   0.1771919923420711E+00   0.1212309797992505E+00
   0.6872233929727677E-01   0.2855640686069265E+01   0.1822698149887076E+00   0.1286611991657806E+00
   0.7853981633974487E-01   0.2849262809488894E+01   0.1880997523221084E+00   0.1369312369966235E+00
   0.8835729338221297E-01   0.2841965323264017E+01   0.1945561158556406E+00   0.1458194946283776E+00
   0.9817477042468109E-01   0.2833863185031159E+01   0.2014821647322736E+00   0.1550922250439586E+00
   0.1079922474671492E+00   0.2825099405643893E+01   0.2087152173086830E+00   0.1645348969502256E+00
   0.1178097245096173E+00   0.2815819875649700E+01   0.2161102233499931E+00   0.1739755278840346E+00
   0.1276272015520854E+00   0.2806150900591484E+01   0.2235555010269057E+00   0.1832958161346948E+00
   0.1374446785945535E+00   0.2796185294766866E+01   0.2309781804555618E+00   0.1924302054820077E+00
   0.1472621556370216E+00   0.2785978882873731E+01   0.2383407279410630E+00   0.2013562571548196E+00
   0.1570796326794897E+00   0.2775555356129482E+01   0.2456322243107200E+00   0.2100811086211328E+00
   0.1668971097219578E+00   0.2764915446496369E+01   0.2528583261703415E+00   0.2186282726813406E+00
   0.1767145867644259E+00   0.2754046755077793E+01   0.2600325570497998E+00   0.2270272242836934E+00
   0.1865320638068941E+00   0.2742932263452242E+01   0.2671698786284585E+00   0.2353062897123211E+00
   0.1963495408493622E+00   0.2731556951424387E+01   0.2742824423203318E+00   0.2434883213140425E+00
   0.2061670178918303E+00   0.2719912062503087E+01   0.2813773935379908E+00   0.2515887797666637E+00
   0.2159844949342984E+00   0.2707995757469311E+01   0.2884571111992060E+00   0.2596165207498219E+00
   0.2258019719767665E+00   0.2695808548023098E+01   0.2955223970370615E+00   0.2675777599477267E+00
   0.2356194490192346E+00   0.2683343262096898E+01   0.3025782744126359E+00   0.2754827460848213E+00
   0.2454369260617027E+00   0.2670572361549356E+01   0.3096404415326638E+00   0.2833529229545678E+00
   0.2552544031041708E+00   0.2657438655012407E+01   0.3167390439422548E+00   0.2912249307100355E+00
   0.2650718801466390E+00   0.2643856540219850E+01   0.3239164237658805E+00   0.2991479026862389E+00
   0.2748893571891071E+00   0.2629728351519640E+01   0.3312173767206017E+00   0.3071726485180085E+00
   0.2847068342315752E+00   0.2614974603631766E+01   0.3386736406687041E+00   0.3153348045070749E+00
   0.2945243112740433E+00   0.2599570321425639E+01   0.3462873916950934E+00   0.3236372623886533E+00
   0.3043417883165114E+00   0.2583575406663051E+01   0.3540198287922009E+00   0.3320384354440970E+00
   0.3141592653589795E+00   0.2567147299372564E+01   0.3617896876977558E+00   0.3404513968385853E+00
   0.3239767424014476E+00   0.2550529010298631E+01   0.3694832921133505E+00   0.3487553308430605E+00
   0.3337942194439157E+00   0.2534012776907236E+01   0.3769741068111346E+00   0.3568168455886188E+00
   0.3436116964863838E+00   0.2517886188157978E+01   0.3841472855444152E+00   0.3645161905130720E+00
   0.3534291735288519E+00   0.2502371591963510E+01   0.3909240419528267E+00   0.3717728910937380E+00
   0.3632466505713200E+00   0.2487570719516065E+01   0.3972813170131985E+00   0.3785661297402287E+00
   0.3730641276137882E+00   0.2473425886783982E+01   0.4032631656181817E+00   0.3849462493584819E+00
   0.3828816046562563E+00   0.2459707982973343E+01   0.4089809039196506E+00   0.3910343799702390E+00
   0.3926990816987244E+00   0.2446039526986092E+01   0.4145996119476748E+00   0.3970077184909935E+00
   0.4025165587411925E+00   0.2431956781191255E+01   0.4203100695665429E+00   0.4030695310977503E+00
   0.4123340357836606E+00   0.2417006697191052E+01   0.4262885272330226E+00   0.4094064795441683E+00
   0.4221515128261287E+00   0.2400862807380938E+01   0.4326516214151250E+00   0.4161411005995331E+00
   0.4319689898685968E+00   0.2383432689699932E+01   0.4394182464052002E+00   0.4232920105870394E+00
   0.4417864669110649E+00   0.2364924136317924E+01   0.4464912873199977E+00   0.4307554252366628E+00
   0.4516039439535330E+00   0.2345842742709102E+01   0.4536678071041574E+00   0.4383168093922989E+00
   0.4614214209960011E+00   0.2326911273350242E+01   0.4606774705458056E+00   0.4456920264240075E+00
   0.4712388980384692E+00   0.2308925942957012E+01   0.4672394129371173E+00   0.4525873409917597E+00
   0.4810563750809373E+00   0.2292587212718354E+01   0.4731217066778592E+00   0.4587615414400181E+00
   0.4908738521234055E+00   0.2278352999480193E+01   0.4781873534654539E+00   0.4640735218922084E+00
   0.5006913291658736E+00   0.2266355126786989E+01   0.4824158239201485E+00   0.4685041604155019E+00
   0.5105088062083416E+00   0.2256397906391666E+01   0.4858971558745676E+00   0.4721496460455176E+00
   0.5203262832508098E+00   0.2248030322374284E+01   0.4888035324113301E+00   0.4751915168276867E+00
   0.5301437602932779E+00   0.2240662166700666E+01   0.4913485360176886E+00   0.4778540328088374E+00
   0.5399612373357460E+00   0.2233687848170957E+01   0.4937454209947841E+00   0.4803606386665106E+00
   0.5497787143782141E+00   0.2226590002582151E+01   0.4961728708524886E+00   0.4828982820791563E+00
   0.5595961914206822E+00   0.2219011429382248E+01   0.4987516869282144E+00   0.4855931578583085E+00
   0.5694136684631503E+00   0.2210797953136074E+01   0.5015315734910036E+00   0.4884970128961959E+00
   0.5792311455056184E+00   0.2202019061055076E+01   0.5044858916211611E+00   0.4915818042535307E+00
   0.5890486225480865E+00   0.2192967276129123E+01   0.5075140376456939E+00   0.4947423468425633E+00
   0.5988660995905546E+00   0.2184128036516219E+01   0.5104537439500642E+00   0.4978093122327205E+00
   0.6086835766330227E+00   0.2176108937980520E+01   0.5131061216700123E+00   0.5005754556373483E+00
   0.6185010536754908E+00   0.2169526517397820E+01   0.5152731041641726E+00   0.5028346533717098E+00
   0.6283185307179590E+00   0.2164868226486707E+01   0.5168011582580805E+00   0.5044273433453288E+00
   0.6381360077604271E+00   0.2162367025920948E+01   0.5176197630685729E+00   0.5052804432642908E+00
   0.6479534848028952E+00   0.2161933672399182E+01   0.5177614615235313E+00   0.5054281034737133E+00
   0.6577709618453633E+00   0.2163179474010596E+01   0.5173540032308763E+00   0.5050034946086291E+00
   0.6675884388878314E+00   0.2165532128899681E+01   0.5165836552628471E+00   0.5042006596344754E+00
   0.6774059159302995E+00   0.2168411227355611E+01   0.5156393638363845E+00   0.5032164348694528E+00
   0.6872233929727676E+00   0.2171404486872095E+01   0.5146557926818756E+00   0.5021911387646996E+00
   0.6970408700152357E+00   0.2174383353022375E+01   0.5136750813708802E+00   0.5011686904395780E+00
   0.7068583470577038E+00   0.2177519329019179E+01   0.5126406186914821E+00   0.5000900579587150E+00
   0.7166758241001719E+00   0.2181200578772152E+01   0.5114236170790876E+00   0.4988209002456516E+00
   0.7264933011426400E+00   0.2185885154257312E+01   0.5098707210231285E+00   0.4972011487981924E+00
   0.7363107781851082E+00   0.2191946956946976E+01   0.5078542386027082E+00   0.4950973386067364E+00
   0.7461282552275763E+00   0.2199566224809883E+01   0.5053082455658655E+00   0.4924402459667907E+00
   0.7559457322700444E+00   0.2208692399066792E+01   0.5022417296000261E+00   0.4892386509907057E+00
   0.7657632093125125E+00   0.2219076556065930E+01   0.4987295826018359E+00   0.4855700630785443E+00
   0.7755806863549806E+00   0.2230347455779862E+01   0.4948893121221198E+00   0.4815565717457759E+00
   0.7853981633974487E+00   0.2242098191403832E+01   0.4908535600377383E+00   0.4773362840247732E+00
   0.7952156404399168E+00   0.2253958763540257E+01   0.4867461539425831E+00   0.4730383684280821E+00
   0.8050331174823849E+00   0.2265645492488177E+01   0.4826647635778358E+00   0.4687649062637579E+00
   0.8148505945248530E+00   0.2276990834725934E+01   0.4786693077262269E+00   0.4645786757057078E+00
   0.8246680715673211E+00   0.2287960556003946E+01   0.4747741619635390E+00   0.4604948572707458E+00
   0.8344855486097892E+00   0.2298659900544806E+01   0.4709439878315327E+00   0.4564765005245359E+00
   0.8443030256522573E+00   0.2309322600167532E+01   0.4670956867980871E+00   0.4524364016441546E+00
   0.8541205026947255E+00   0.2320273723019452E+01   0.4631100040327940E+00   0.4482491162804531E+00
   0.8639379797371936E+00   0.2331863316862484E+01   0.4588542432688440E+00   0.4437746744452948E+00
   0.8737554567796617E+00   0.2344380451939749E+01   0.4542130975979889E+00   0.4388908972851055E+00
   0.8835729338221298E+00   0.2357969843909950E+01   0.4491200805038857E+00   0.4335264768591218E+00
   0.8933904108645979E+00   0.2372578291691485E+01   0.4435799294932178E+00   0.4276847468739998E+00
   0.9032078879070660E+00   0.2387951841061791E+01   0.4376738919487986E+00   0.4214496269225466E+00
   0.9130253649495341E+00   0.2403688748813142E+01   0.4315445544631695E+00   0.4149701162219731E+00
   0.9228428419920022E+00   0.2419334522550475E+01   0.4253631656812195E+00   0.4084262382310441E+00
   0.9326603190344703E+00   0.2434491353179575E+01   0.4192880569907813E+00   0.4019852890036713E+00
   0.9424777960769384E+00   0.2448910413884489E+01   0.4134258082225199E+00   0.3957605736353428E+00
   0.9522952731194065E+00   0.2462542364104074E+01   0.4078060807332594E+00   0.3897842499936007E+00
   0.9621127501618747E+00   0.2475535264265536E+01   0.4023767520423591E+00   0.3840015262286779E+00
   0.9719302272043427E+00   0.2488184303388639E+01   0.3970197928407307E+00   0.3782869335737028E+00
   0.9817477042468109E+00   0.2500849382009634E+01   0.3915826235359239E+00   0.3724772641120101E+00
   0.9915651812892790E+00   0.2513862286828560E+01   0.3859163504902382E+00   0.3664121088800235E+00
   0.1001382658331747E+01   0.2527445097736525E+01   0.3799117874952979E+00   0.3599723411404154E+00
   0.1011200135374215E+01   0.2541657140378401E+01   0.3735257373368934E+00   0.3531085383280781E+00
   0.1021017612416683E+01   0.2556380895206711E+01   0.3667925113291603E+00   0.3458539664831143E+00
   0.1030835089459151E+01   0.2571348961317227E+01   0.3598184328917992E+00   0.3383196044110663E+00
   0.1040652566501620E+01   0.2586205399202457E+01   0.3527600525680882E+00   0.3306717203892963E+00
   0.1050470043544088E+01   0.2600586883516439E+01   0.3457901102572220E+00   0.3230959401859797E+00
   0.1060287520586556E+01   0.2614204011921005E+01   0.3390585773264886E+00   0.3157553180992361E+00
   0.1070104997629024E+01   0.2626902752824277E+01   0.3326583196530235E+00   0.3087525485146255E+00
   0.1079922474671492E+01   0.2638691181335396E+01   0.3266046277214243E+00   0.3021065234629359E+00
   0.1089739951713960E+01   0.2649726215594605E+01   0.3208343339412524E+00   0.2957499386508842E+00
   0.1099557428756428E+01   0.2660266047606261E+01   0.3152243766590257E+00   0.2895483418266375E+00
   0.1109374905798896E+01   0.2670602685194455E+01   0.3096238636742090E+00   0.2833344946694438E+00
   0.1119192382841364E+01   0.2680992725863120E+01   0.3038904188184420E+00   0.2769480784255555E+00
   0.1129009859883833E+01   0.2691602528812703E+01   0.2979218618688945E+00   0.2702708957434569E+00
   0.1138827336926301E+01   0.2702477922298444E+01   0.2916771660262157E+00   0.2632508500062904E+00
   0.1148644813968769E+01   0.2713541282034147E+01   0.2851842677497073E+00   0.2559119571037944E+00
   0.1158462291011237E+01   0.2724612776186693E+01   0.2785351145804978E+00   0.2483506556439036E+00
   0.1168279768053705E+01   0.2735448968979112E+01   0.2718698491161569E+00   0.2407201722363927E+00
   0.1178097245096173E+01   0.2745790501245500E+01   0.2653527597004656E+00   0.2332052942617273E+00
   0.1187914722138641E+01   0.2755410205274249E+01   0.2591434629589164E+00   0.2259907203338233E+00
   0.1197732199181109E+01   0.2764153076475852E+01   0.2533681780210169E+00   0.2192279000141529E+00
   0.1207549676223577E+01   0.2771960226944303E+01   0.2480974028699948E+00   0.2130074855953285E+00
   0.1217367153266045E+01   0.2778871119207223E+01   0.2433364694806585E+00   0.2073455222810207E+00
   0.1227184630308514E+01   0.2785002596461213E+01   0.2390331034647303E+00   0.2021894233295228E+00
   0.1237002107350982E+01   0.2790508978044600E+01   0.2351013355695280E+00   0.1974442584458737E+00
   0.1246819584393450E+01   0.2795533045244804E+01   0.2314556956530283E+00   0.1930129799085084E+00
   0.1256637061435918E+01   0.2800160879091402E+01   0.2280460150791564E+00   0.1888391997320458E+00
   0.1266454538478386E+01   0.2804392694700581E+01   0.2248828650402587E+00   0.1849401523109477E+00
   0.1276272015520854E+01   0.2808137114059961E+01   0.2220464570308295E+00   0.1814203119314990E+00
   0.1286089492563322E+01   0.2811229464796324E+01   0.2196763827347643E+00   0.1784610976034683E+00
   0.1295906969605790E+01   0.2813468244382285E+01   0.2179444283833752E+00   0.1762877085089744E+00
   0.1305724446648258E+01   0.2814659976940558E+01   0.2170168485900012E+00   0.1751197837217772E+00
   0.1315541923690727E+01   0.2814662081497568E+01   0.2170152070103538E+00   0.1751177143184598E+00
   0.1325359400733195E+01   0.2813415365150830E+01   0.2179854952457620E+00   0.1763393521180930E+00
   0.1335176877775663E+01   0.2810960876452456E+01   0.2198832503123969E+00   0.1787200653646458E+00
   0.1344994354818131E+01   0.2807438841551791E+01   0.2225781421761480E+00   0.1820818654976737E+00
   0.1354811831860599E+01   0.2803069846124707E+01   0.2258764123002213E+00   0.1861677526977862E+00
   0.1364629308903067E+01   0.2798120677332439E+01   0.2295554305593018E+00   0.1906904897117190E+00
   0.1374446785945535E+01   0.2792859773037359E+01   0.2334026046995884E+00   0.1953833445480161E+00
   0.1384264262988003E+01   0.2787509917425282E+01   0.2372508599513605E+00   0.2000426791665644E+00
   0.1394081740030471E+01   0.2782207739655700E+01   0.2410041988676473E+00   0.2045558016961578E+00
   0.1403899217072940E+01   0.2776979435685074E+01   0.2446488651248609E+00   0.2089105965027601E+00
   0.1413716694115408E+01   0.2771739174409550E+01   0.2482481796304811E+00   0.2131861078923608E+00
   0.1423534171157876E+01   0.2766311286393883E+01   0.2519221531396166E+00   0.2175261182616742E+00
   0.1433351648200344E+01   0.2760471192380233E+01   0.2558162157030806E+00   0.2221010269031074E+00
   0.1443169125242812E+01   0.2753995243944902E+01   0.2600660874278004E+00   0.2270662906384714E+00
   0.1452986602285280E+01   0.2746707842595577E+01   0.2647669182254508E+00   0.2325269631458251E+00
   0.1462804079327748E+01   0.2738515742241847E+01   0.2699536222550898E+00   0.2385163383382993E+00
   0.1472621556370216E+01   0.2729423383257213E+01   0.2755960414933564E+00   0.2449925230077112E+00
   0.1482439033412684E+01   0.2719527834304880E+01   0.2816084482506195E+00   0.2518516178311318E+00
   0.1492256510455153E+01   0.2708996004578236E+01   0.2878695384135259E+00   0.2589522455522005E+00
   0.1502073987497621E+01   0.2698029578779409E+01   0.2942474413690230E+00   0.2661446277930798E+00
   0.1511891464540089E+01   0.2686824711529407E+01   0.3006242950230305E+00   0.2732979629082248E+00
   0.1521708941582557E+01   0.2675534230881027E+01   0.3069158861916233E+00   0.2803213768531970E+00
   0.1531526418625025E+01   0.2664239973824170E+01   0.3130831105941613E+00   0.2871753343498694E+00
   0.1541343895667493E+01   0.2652941496286859E+01   0.3191334139922173E+00   0.2938719525180686E+00
   0.1551161372709961E+01   0.2641564295251254E+01   0.3251121184593599E+00   0.3004644532472227E+00
   0.1560978849752429E+01   0.2629985965981745E+01   0.3310856916494391E+00   0.3070282020541846E+00
   0.1570796326794897E+01   0.2618073492367392E+01   0.3371212029735714E+00   0.3136380415484057E+00
   0.1580613803837366E+01   0.2605720998110462E+01   0.3432675994739157E+00   0.3203480339618388E+00
   0.1590431280879834E+01   0.2592876585915446E+01   0.3495441647592967E+00   0.3271793313997057E+00
   0.1600248757922302E+01   0.2579550142272963E+01   0.3559393111572231E+00   0.3341193984500883E+00
   0.1610066234964770E+01   0.2565800363678316E+01   0.3624193475354144E+00   0.3411319702314567E+00
   0.1619883712007238E+01   0.2551706548547348E+01   0.3689434202500217E+00   0.3481734504673880E+00
   0.1629701189049706E+01   0.2537336200276916E+01   0.3754788030930559E+00   0.3552093982417986E+00
   0.1639518666092174E+01   0.2522721167927451E+01   0.3820108030430119E+00   0.3622249959208638E+00
   0.1649336143134642E+01   0.2507852335821268E+01   0.3885435621244706E+00   0.3692256547768766E+00
   0.1659153620177110E+01   0.2492696738675099E+01   0.3950911667649991E+00   0.3762272967898430E+00
   0.1668971097219579E+01   0.2477233420537288E+01   0.4016617226537517E+00   0.3832392839284072E+00
   0.1678788574262047E+01   0.2461497606369949E+01   0.4082395159938472E+00   0.3902455160606247E+00
   0.1688606051304515E+01   0.2445618662961806E+01   0.4147714091221304E+00   0.3971902173432494E+00
   0.1698423528346983E+01   0.2429837069259597E+01   0.4211628942219166E+00   0.4039740693430856E+00
   0.1708241005389451E+01   0.2414489631118112E+01   0.4272868610937393E+00   0.4104637755056633E+00
   0.1718058482431919E+01   0.2399960058386412E+01   0.4330046782222475E+00   0.4165144785821971E+00
   0.1727875959474387E+01   0.2386602322715146E+01   0.4381955218788071E+00   0.4220006456990437E+00
   0.1737693436516855E+01   0.2374654324350240E+01   0.4427869833060479E+00   0.4268480801080321E+00
   0.1747510913559323E+01   0.2364165910354109E+01   0.4467786557138576E+00   0.4310584180124990E+00
   0.1757328390601792E+01   0.2354965049861247E+01   0.4502511747086778E+00   0.4347183213908336E+00
   0.1767145867644260E+01   0.2346677568989850E+01   0.4533562049884786E+00   0.4379887234316728E+00
   0.1776963344686728E+01   0.2338800821565343E+01   0.4562877633550299E+00   0.4410745666935157E+00
   0.1786780821729196E+01   0.2330814625585548E+01   0.4592409511393591E+00   0.4441814016856644E+00
   0.1796598298771664E+01   0.2322299960126704E+01   0.4623687844838226E+00   0.4474700660194049E+00
   0.1806415775814132E+01   0.2313032574431987E+01   0.4657492545461027E+00   0.4510222052509085E+00
   0.1816233252856600E+01   0.2303026585270938E+01   0.4693718117909230E+00   0.4548263019062166E+00
   0.1826050729899068E+01   0.2292519440017295E+01   0.4731459540046928E+00   0.4587869788472875E+00
   0.1835868206941536E+01   0.2281907793124732E+01   0.4769273203838164E+00   0.4627526423997427E+00
   0.1845685683984005E+01   0.2271656691184874E+01   0.4805519550490741E+00   0.4665515588277639E+00
   0.1855503161026473E+01   0.2262207527406058E+01   0.4838689882114030E+00   0.4700260936889180E+00
   0.1865320638068941E+01   0.2253903882714306E+01   0.4867652394042637E+00   0.4730583455165409E+00
   0.1875138115111409E+01   0.2246943409247823E+01   0.4891797910278075E+00   0.4755852149802055E+00
   0.1884955592153877E+01   0.2241354759600564E+01   0.4911098720088806E+00   0.4776043932949718E+00
   0.1894773069196345E+01   0.2236995618577248E+01   0.4926100835684180E+00   0.4791734437183389E+00
   0.1904590546238813E+01   0.2233571036934420E+01   0.4937854667974386E+00   0.4804025098631193E+00
   0.1914408023281281E+01   0.2230676045394466E+01   0.4947769064681695E+00   0.4814390612649728E+00
   0.1924225500323749E+01   0.2227866990225847E+01   0.4957370203572484E+00   0.4824427142660762E+00
   0.1934042977366218E+01   0.2224758669187958E+01   0.4967972584967747E+00   0.4835508646879115E+00
   0.1943860454408685E+01   0.2221130836600846E+01   0.4980318458533116E+00   0.4848410235281775E+00
   0.1953677931451154E+01   0.2217014660920551E+01   0.4994289254420614E+00   0.4863007059374377E+00
   0.1963495408493622E+01   0.2212725646978384E+01   0.5008805227595053E+00   0.4878170337242814E+00
   0.1973312885536090E+01   0.2208819756116410E+01   0.5021988034608309E+00   0.4891938240378320E+00
   0.1983130362578558E+01   0.2205972736164671E+01   0.5031575273815698E+00   0.4901949356138204E+00
   0.1992947839621026E+01   0.2204810808268521E+01   0.5035482780011731E+00   0.4906029230200757E+00
   0.2002765316663494E+01   0.2205742029159100E+01   0.5032351371503543E+00   0.4902759707113138E+00
   0.2012582793705962E+01   0.2208841931240506E+01   0.5021913288826052E+00   0.4891860184493629E+00
   0.2022400270748431E+01   0.2213831327116144E+01   0.5005067130941028E+00   0.4874265854762395E+00
   0.2032217747790899E+01   0.2220153932434033E+01   0.4983637733437288E+00   0.4851878517167270E+00
   0.2042035224833366E+01   0.2227128471815685E+01   0.4959891318419589E+00   0.4827062345634938E+00
   0.2051852701875835E+01   0.2234126940541857E+01   0.4935948601282217E+00   0.4802032125651010E+00
   0.2061670178918303E+01   0.2240725812112478E+01   0.4913266089680772E+00   0.4778310977763378E+00
   0.2071487655960771E+01   0.2246790431567887E+01   0.4892327243486128E+00   0.4756405998998719E+00
   0.2081305133003239E+01   0.2252477524199507E+01   0.4872610103910697E+00   0.4735772566073336E+00
   0.2091122610045707E+01   0.2258166130908799E+01   0.4852807572218309E+00   0.4715043311034087E+00
   0.2100940087088175E+01   0.2264344360004495E+01   0.4831208675448416E+00   0.4692426140138424E+00
   0.2110757564130644E+01   0.2271484300355622E+01   0.4806126761234598E+00   0.4666151800482120E+00
   0.2120575041173112E+01   0.2279932257885844E+01   0.4776279794685527E+00   0.4634871705158460E+00
   0.2130392518215579E+01   0.2289831671312987E+01   0.4741065686248115E+00   0.4597946555609211E+00
   0.2140209995258048E+01   0.2301087072109984E+01   0.4700707609127224E+00   0.4555599944524300E+00
   0.2150027472300516E+01   0.2313371799790507E+01   0.4656259478364232E+00   0.4508926754059659E+00
   0.2159844949342984E+01   0.2326178841105316E+01   0.4609465228729945E+00   0.4459749127004393E+00
   0.2169662426385452E+01   0.2338910199681902E+01   0.4562471841060665E+00   0.4410318638750176E+00
   0.2179479903427920E+01   0.2350993476699346E+01   0.4517418479615614E+00   0.4362886409086634E+00
   0.2189297380470388E+01   0.2362005512645184E+01   0.4475964368375906E+00   0.4319205635361575E+00
   0.2199114857512856E+01   0.2371775592029114E+01   0.4438861430337664E+00   0.4280078062989806E+00
   0.2208932334555325E+01   0.2380439532160434E+01   0.4405697780670779E+00   0.4245078698636564E+00
   0.2218749811597792E+01   0.2388424027315084E+01   0.4374912307063007E+00   0.4212566594122119E+00
   0.2228567288640261E+01   0.2396357272513120E+01   0.4344108369120410E+00   0.4180012732691912E+00
   0.2238384765682729E+01   0.2404922554133358E+01   0.4310603176512359E+00   0.4144578271828498E+00
   0.2248202242725197E+01   0.2414689301059489E+01   0.4272077519960423E+00   0.4103800034317480E+00
   0.2258019719767665E+01   0.2425964704666842E+01   0.4227164218030976E+00   0.4056213033933645E+00
   0.2267837196810133E+01   0.2438705201162611E+01   0.4175833757151894E+00   0.4001761824227073E+00
   0.2277654673852601E+01   0.2452511910979628E+01   0.4119485542592335E+00   0.3941904639852390E+00
   0.2287472150895069E+01   0.2466712284119814E+01   0.4060715112434714E+00   0.3879377452359985E+00
   0.2297289627937538E+01   0.2480508216049355E+01   0.4002792235203519E+00   0.3817650466772791E+00
   0.2307107104980005E+01   0.2493154763840568E+01   0.3948948791084715E+00   0.3760176070533540E+00
   0.2316924582022474E+01   0.2504127047354539E+01   0.3901631669054412E+00   0.3709589277332770E+00
   0.2326742059064942E+01   0.2513236794320690E+01   0.3861906137996689E+00   0.3667059383077790E+00
   0.2336559536107410E+01   0.2520672535349662E+01   0.3829175088745854E+00   0.3631975642093331E+00
   0.2346377013149878E+01   0.2526955259736647E+01   0.3801299791240318E+00   0.3602065801133015E+00
   0.2356194490192346E+01   0.2532820312023425E+01   0.3775091872079779E+00   0.3573918452063326E+00
   0.2366011967234814E+01   0.2539052470468655E+01   0.3747042673389899E+00   0.3543764312082248E+00
   0.2375829444277282E+01   0.2546311233650349E+01   0.3714105979407710E+00   0.3508316253855958E+00
   0.2385646921319751E+01   0.2554985258836711E+01   0.3674360343434472E+00   0.3465481287346008E+00
   0.2395464398362218E+01   0.2565108145811667E+01   0.3627425174453118E+00   0.3414812031932807E+00
   0.2405281875404687E+01   0.2576353695031794E+01   0.3574562225891688E+00   0.3357626961934453E+00
   0.2415099352447155E+01   0.2588110501206992E+01   0.3518446845277400E+00   0.3296781669895205E+00
   0.2424916829489623E+01   0.2599617552151132E+01   0.3462643032072591E+00   0.3236121319510099E+00
   0.2434734306532091E+01   0.2610128796215756E+01   0.3410870621047207E+00   0.3179699251712703E+00
   0.2444551783574559E+01   0.2619068754118259E+01   0.3366210917832125E+00   0.3130911458831889E+00
   0.2454369260617027E+01   0.2626144487634909E+01   0.3330439437416705E+00   0.3091751495377297E+00
   0.2464186737659495E+01   0.2631390517948516E+01   0.3303668020111357E+00   0.3062394602941557E+00
   0.2474004214701964E+01   0.2635139515956273E+01   0.3284402531054731E+00   0.3041241520457941E+00
   0.2483821691744431E+01   0.2637928609100639E+01   0.3269996205330268E+00   0.3025408595344765E+00
   0.2493639168786900E+01   0.2640364928837639E+01   0.3257359901880316E+00   0.3011510155857445E+00
   0.2503456645829368E+01   0.2642981665709066E+01   0.3243733011863854E+00   0.2996510692867063E+00
   0.2513274122871836E+01   0.2646116227920010E+01   0.3227333758244393E+00   0.2978443553380631E+00
   0.2523091599914304E+01   0.2649835696350402E+01   0.3207765657029390E+00   0.2956861891153428E+00
   0.2532909076956772E+01   0.2653923581412436E+01   0.3186120694738026E+00   0.2932959373446946E+00
   0.2542726553999240E+01   0.2657928599710878E+01   0.3164770940900135E+00   0.2909350950824237E+00
   0.2552544031041708E+01   0.2661263571838481E+01   0.3146882514736438E+00   0.2889545078535904E+00
   0.2562361508084176E+01   0.2663332930491847E+01   0.3135731395343602E+00   0.2877186939262594E+00
   0.2572178985126644E+01   0.2663662287447292E+01   0.3133952934802142E+00   0.2875215130948804E+00
   0.2581996462169112E+01   0.2662003698582619E+01   0.3142898750534273E+00   0.2885131147471773E+00
   0.2591813939211581E+01   0.2658395445803538E+01   0.3162272920659985E+00   0.2906586549544596E+00
   0.2601631416254049E+01   0.2653164281429514E+01   0.3190152221643534E+00   0.2937413830396219E+00
   0.2611448893296517E+01   0.2646869480184083E+01   0.3223380495213823E+00   0.2974085565631810E+00
   0.2621266370338985E+01   0.2640199635563432E+01   0.3258218767581312E+00   0.3012455129749470E+00
   0.2631083847381453E+01   0.2633842725186390E+01   0.3291079285425387E+00   0.3048575045635111E+00
   0.2640901324423921E+01   0.2628355603812260E+01   0.3319182047543385E+00   0.3079412165185393E+00
   0.2650718801466389E+01   0.2624059458905033E+01   0.3341020133860104E+00   0.3103342237665754E+00
   0.2660536278508857E+01   0.2620982582896453E+01   0.3356573138261287E+00   0.3120368045039848E+00
   0.2670353755551325E+01   0.2618861984418869E+01   0.3367250530560784E+00   0.3132048442831622E+00
   0.2680171232593794E+01   0.2617202912733723E+01   0.3375580548589145E+00   0.3141156437498970E+00
   0.2689988709636262E+01   0.2615383068382355E+01   0.3384694211628904E+00   0.3151116768286472E+00
   0.2699806186678730E+01   0.2612778946702603E+01   0.3397692966822476E+00   0.3165315074775612E+00
   0.2709623663721198E+01   0.2608887558156245E+01   0.3417025099758668E+00   0.3186413970254897E+00
   0.2719441140763666E+01   0.2603418575905168E+01   0.3444011183749569E+00   0.3215832516744933E+00
   0.2729258617806134E+01   0.2596339177481725E+01   0.3478632807054401E+00   0.3253518748117967E+00
   0.2739076094848602E+01   0.2587864604949042E+01   0.3519629671667155E+00   0.3298065756321295E+00
   0.2748893571891070E+01   0.2578399189463835E+01   0.3564862529276903E+00   0.3347120343142921E+00
   0.2758711048933538E+01   0.2568442680271771E+01   0.3611830929969732E+00   0.3397955869633053E+00
   0.2768528525976007E+01   0.2558483173002128E+01   0.3658210215488555E+00   0.3448056966240713E+00
   0.2778346003018475E+01   0.2548899657852888E+01   0.3702290112094190E+00   0.3495588777727492E+00
   0.2788163480060943E+01   0.2539894111127175E+01   0.3743238575778704E+00   0.3539672367160430E+00
   0.2797980957103411E+01   0.2531465928353964E+01   0.3781160050612160E+00   0.3580438011088569E+00
   0.2807798434145879E+01   0.2523431845121970E+01   0.3816957607020651E+00   0.3618869982356790E+00
   0.2817615911188347E+01   0.2515484310594530E+01   0.3852042226034069E+00   0.3656490519605163E+00
   0.2827433388230815E+01   0.2507272789647842E+01   0.3887959685221702E+00   0.3694958355233205E+00
   0.2837250865273283E+01   0.2498487717100669E+01   0.3926022072958383E+00   0.3735674498769820E+00
   0.2847068342315751E+01   0.2488927153826696E+01   0.3967029414382324E+00   0.3779486418540131E+00
   0.2856885819358220E+01   0.2478531719812894E+01   0.4011141981664289E+00   0.3826554991172539E+00
   0.2866703296400688E+01   0.2467382724172445E+01   0.4057919351492810E+00   0.3876400432880222E+00
   0.2876520773443156E+01   0.2455668892462494E+01   0.4106492598993088E+00   0.3928089836894746E+00
   0.2886338250485624E+01   0.2443635455915837E+01   0.4155800006733659E+00   0.3980490673405777E+00
   0.2896155727528092E+01   0.2431532896698360E+01   0.4204807495680006E+00   0.4032505763443471E+00